  64  64   0   0
  0.2003223E+02  0.1086350E-08  0.1086350E-08  0.1086350E-08  0.1000000E-14
   300.000000000000     
  CAR 
 unknown system                          
     12.43790352    -18.12225394  301      1.95194949      1.00000000
    -18.122  0.0000E+00  0.0000E+00
    -18.020  0.0000E+00  0.0000E+00
    -17.919  0.0000E+00  0.0000E+00
    -17.817  0.0000E+00  0.0000E+00
    -17.715  0.0000E+00  0.0000E+00
    -17.613  0.0000E+00  0.0000E+00
    -17.511  0.0000E+00  0.0000E+00
    -17.409  0.0000E+00  0.0000E+00
    -17.307  0.0000E+00  0.0000E+00
    -17.205  0.0000E+00  0.0000E+00
    -17.104  0.0000E+00  0.0000E+00
    -17.002  0.2260E-12  0.2312E-13
    -16.900  0.2108E-04  0.2158E-05
    -16.798  0.6385E+00  0.6537E-01
    -16.696  0.1634E+02  0.1738E+01
    -16.594  0.1204E+02  0.2970E+01
    -16.492  0.2570E+02  0.5598E+01
    -16.391  0.3632E+02  0.9313E+01
    -16.289  0.4784E+02  0.1421E+02
    -16.187  0.5793E+02  0.2013E+02
    -16.085  0.6573E+02  0.2686E+02
    -15.983  0.6769E+02  0.3379E+02
    -15.881  0.6664E+02  0.4061E+02
    -15.779  0.6128E+02  0.4688E+02
    -15.677  0.5314E+02  0.5233E+02
    -15.576  0.4156E+02  0.5659E+02
    -15.474  0.3042E+02  0.5970E+02
    -15.372  0.1923E+02  0.6168E+02
    -15.270  0.1070E+02  0.6278E+02
    -15.168  0.5729E+01  0.6336E+02
    -15.066  0.3561E+01  0.6373E+02
    -14.964  0.1710E+01  0.6391E+02
    -14.863  0.5510E+00  0.6396E+02
    -14.761  0.1940E+00  0.6398E+02
    -14.659  0.1198E+00  0.6400E+02
    -14.557  0.4226E-01  0.6400E+02
    -14.455  0.3589E-02  0.6400E+02
    -14.353  0.1150E-05  0.6400E+02
    -14.251  0.1345E-12  0.6400E+02
    -14.149  0.0000E+00  0.6400E+02
    -14.048  0.0000E+00  0.6400E+02
    -13.946  0.0000E+00  0.6400E+02
    -13.844  0.0000E+00  0.6400E+02
    -13.742  0.0000E+00  0.6400E+02
    -13.640  0.0000E+00  0.6400E+02
    -13.538  0.0000E+00  0.6400E+02
    -13.436  0.0000E+00  0.6400E+02
    -13.334  0.0000E+00  0.6400E+02
    -13.233  0.0000E+00  0.6400E+02
    -13.131  0.0000E+00  0.6400E+02
    -13.029  0.0000E+00  0.6400E+02
    -12.927  0.0000E+00  0.6400E+02
    -12.825  0.0000E+00  0.6400E+02
    -12.723  0.0000E+00  0.6400E+02
    -12.621  0.0000E+00  0.6400E+02
    -12.520  0.0000E+00  0.6400E+02
    -12.418  0.0000E+00  0.6400E+02
    -12.316  0.0000E+00  0.6400E+02
    -12.214  0.0000E+00  0.6400E+02
    -12.112  0.0000E+00  0.6400E+02
    -12.010  0.0000E+00  0.6400E+02
    -11.908  0.0000E+00  0.6400E+02
    -11.806  0.0000E+00  0.6400E+02
    -11.705  0.0000E+00  0.6400E+02
    -11.603  0.0000E+00  0.6400E+02
    -11.501  0.0000E+00  0.6400E+02
    -11.399  0.0000E+00  0.6400E+02
    -11.297  0.0000E+00  0.6400E+02
    -11.195  0.0000E+00  0.6400E+02
    -11.093  0.0000E+00  0.6400E+02
    -10.992  0.0000E+00  0.6400E+02
    -10.890  0.0000E+00  0.6400E+02
    -10.788  0.0000E+00  0.6400E+02
    -10.686  0.0000E+00  0.6400E+02
    -10.584  0.0000E+00  0.6400E+02
    -10.482  0.0000E+00  0.6400E+02
    -10.380  0.0000E+00  0.6400E+02
    -10.278  0.0000E+00  0.6400E+02
    -10.177  0.0000E+00  0.6400E+02
    -10.075  0.0000E+00  0.6400E+02
     -9.973  0.0000E+00  0.6400E+02
     -9.871  0.0000E+00  0.6400E+02
     -9.769  0.0000E+00  0.6400E+02
     -9.667  0.0000E+00  0.6400E+02
     -9.565  0.0000E+00  0.6400E+02
     -9.464  0.0000E+00  0.6400E+02
     -9.362  0.0000E+00  0.6400E+02
     -9.260  0.0000E+00  0.6400E+02
     -9.158  0.0000E+00  0.6400E+02
     -9.056  0.0000E+00  0.6400E+02
     -8.954  0.0000E+00  0.6400E+02
     -8.852  0.0000E+00  0.6400E+02
     -8.750  0.0000E+00  0.6400E+02
     -8.649  0.0000E+00  0.6400E+02
     -8.547  0.0000E+00  0.6400E+02
     -8.445  0.0000E+00  0.6400E+02
     -8.343  0.0000E+00  0.6400E+02
     -8.241  0.0000E+00  0.6400E+02
     -8.139  0.0000E+00  0.6400E+02
     -8.037  0.0000E+00  0.6400E+02
     -7.936  0.0000E+00  0.6400E+02
     -7.834  0.0000E+00  0.6400E+02
     -7.732  0.0000E+00  0.6400E+02
     -7.630  0.0000E+00  0.6400E+02
     -7.528  0.0000E+00  0.6400E+02
     -7.426  0.0000E+00  0.6400E+02
     -7.324  0.0000E+00  0.6400E+02
     -7.222  0.0000E+00  0.6400E+02
     -7.121  0.0000E+00  0.6400E+02
     -7.019  0.0000E+00  0.6400E+02
     -6.917  0.0000E+00  0.6400E+02
     -6.815  0.0000E+00  0.6400E+02
     -6.713  0.0000E+00  0.6400E+02
     -6.611  0.0000E+00  0.6400E+02
     -6.509  0.0000E+00  0.6400E+02
     -6.408  0.0000E+00  0.6400E+02
     -6.306  0.0000E+00  0.6400E+02
     -6.204  0.0000E+00  0.6400E+02
     -6.102  0.0000E+00  0.6400E+02
     -6.000  0.0000E+00  0.6400E+02
     -5.898  0.0000E+00  0.6400E+02
     -5.796  0.0000E+00  0.6400E+02
     -5.694  0.0000E+00  0.6400E+02
     -5.593  0.0000E+00  0.6400E+02
     -5.491  0.0000E+00  0.6400E+02
     -5.389  0.1067E-15  0.6400E+02
     -5.287  0.1125E-07  0.6400E+02
     -5.185  0.4863E-03  0.6400E+02
     -5.083  0.6650E-01  0.6401E+02
     -4.981  0.7492E+00  0.6408E+02
     -4.880  0.4972E+01  0.6459E+02
     -4.778  0.1844E+02  0.6648E+02
     -4.676  0.3590E+02  0.7016E+02
     -4.574  0.4209E+02  0.7446E+02
     -4.472  0.3357E+02  0.7790E+02
     -4.370  0.3575E+02  0.8156E+02
     -4.268  0.5481E+02  0.8717E+02
     -4.166  0.7100E+02  0.9444E+02
     -4.065  0.8134E+02  0.1028E+03
     -3.963  0.8580E+02  0.1115E+03
     -3.861  0.8404E+02  0.1202E+03
     -3.759  0.8215E+02  0.1286E+03
     -3.657  0.7879E+02  0.1366E+03
     -3.555  0.7929E+02  0.1447E+03
     -3.453  0.8360E+02  0.1533E+03
     -3.352  0.8740E+02  0.1623E+03
     -3.250  0.9317E+02  0.1718E+03
     -3.148  0.1012E+03  0.1822E+03
     -3.046  0.1078E+03  0.1932E+03
     -2.944  0.1096E+03  0.2044E+03
     -2.842  0.1064E+03  0.2153E+03
     -2.740  0.9836E+02  0.2254E+03
     -2.638  0.8698E+02  0.2343E+03
     -2.537  0.7202E+02  0.2417E+03
     -2.435  0.5468E+02  0.2473E+03
     -2.333  0.3727E+02  0.2511E+03
     -2.231  0.2424E+02  0.2536E+03
     -2.129  0.1215E+02  0.2548E+03
     -2.027  0.6192E+01  0.2554E+03
     -1.925  0.3318E+01  0.2558E+03
     -1.824  0.1392E+01  0.2559E+03
     -1.722  0.4461E+00  0.2560E+03
     -1.620  0.2393E+00  0.2560E+03
     -1.518  0.8701E-01  0.2560E+03
     -1.416  0.1542E-01  0.2560E+03
     -1.314  0.1697E+00  0.2560E+03
     -1.212  0.2430E+00  0.2560E+03
     -1.110  0.4296E+00  0.2561E+03
     -1.009  0.8649E+00  0.2562E+03
     -0.907  0.2082E+01  0.2564E+03
     -0.805  0.7743E+01  0.2572E+03
     -0.703  0.2601E+02  0.2598E+03
     -0.601  0.7933E+02  0.2680E+03
     -0.499  0.1736E+03  0.2857E+03
     -0.397  0.2613E+03  0.3125E+03
     -0.295  0.3121E+03  0.3444E+03
     -0.194  0.3053E+03  0.3757E+03
     -0.092  0.2409E+03  0.4003E+03
      0.010  0.1856E+03  0.4194E+03
      0.112  0.1595E+03  0.4357E+03
      0.214  0.1476E+03  0.4508E+03
      0.316  0.1292E+03  0.4640E+03
      0.418  0.1190E+03  0.4762E+03
      0.519  0.1030E+03  0.4868E+03
      0.621  0.7909E+02  0.4949E+03
      0.723  0.8329E+02  0.5034E+03
      0.825  0.1098E+03  0.5146E+03
      0.927  0.1222E+03  0.5271E+03
      1.029  0.1273E+03  0.5402E+03
      1.131  0.1241E+03  0.5529E+03
      1.233  0.1027E+03  0.5634E+03
      1.334  0.5303E+02  0.5688E+03
      1.436  0.1083E+02  0.5699E+03
      1.538  0.6918E+01  0.5706E+03
      1.640  0.2821E+02  0.5735E+03
      1.742  0.2149E+02  0.5757E+03
      1.844  0.2515E+01  0.5760E+03
      1.946  0.3004E-01  0.5760E+03
      2.047  0.3124E-05  0.5760E+03
      2.149  0.2791E-12  0.5760E+03
      2.251  0.0000E+00  0.5760E+03
      2.353  0.0000E+00  0.5760E+03
      2.455  0.0000E+00  0.5760E+03
      2.557  0.0000E+00  0.5760E+03
      2.659  0.0000E+00  0.5760E+03
      2.761  0.0000E+00  0.5760E+03
      2.862  0.0000E+00  0.5760E+03
      2.964  0.0000E+00  0.5760E+03
      3.066  0.0000E+00  0.5760E+03
      3.168  0.0000E+00  0.5760E+03
      3.270  0.0000E+00  0.5760E+03
      3.372  0.0000E+00  0.5760E+03
      3.474  0.0000E+00  0.5760E+03
      3.575  0.0000E+00  0.5760E+03
      3.677  0.0000E+00  0.5760E+03
      3.779  0.0000E+00  0.5760E+03
      3.881  0.0000E+00  0.5760E+03
      3.983  0.0000E+00  0.5760E+03
      4.085  0.0000E+00  0.5760E+03
      4.187  0.0000E+00  0.5760E+03
      4.289  0.0000E+00  0.5760E+03
      4.390  0.0000E+00  0.5760E+03
      4.492  0.0000E+00  0.5760E+03
      4.594  0.0000E+00  0.5760E+03
      4.696  0.1836E-17  0.5760E+03
      4.798  0.9380E-09  0.5760E+03
      4.900  0.2437E-03  0.5760E+03
      5.002  0.2495E+00  0.5760E+03
      5.103  0.6892E+01  0.5767E+03
      5.205  0.1109E+02  0.5779E+03
      5.307  0.1292E+01  0.5780E+03
      5.409  0.7341E-02  0.5780E+03
      5.511  0.2966E-06  0.5780E+03
      5.613  0.9262E-14  0.5780E+03
      5.715  0.0000E+00  0.5780E+03
      5.817  0.0000E+00  0.5780E+03
      5.918  0.0000E+00  0.5780E+03
      6.020  0.1426E-15  0.5780E+03
      6.122  0.8505E-08  0.5780E+03
      6.224  0.2939E-03  0.5780E+03
      6.326  0.4120E-01  0.5780E+03
      6.428  0.1978E+00  0.5780E+03
      6.530  0.3527E+00  0.5781E+03
      6.631  0.9289E+00  0.5782E+03
      6.733  0.2737E+01  0.5784E+03
      6.835  0.4908E+01  0.5789E+03
      6.937  0.9420E+01  0.5799E+03
      7.039  0.1491E+02  0.5814E+03
      7.141  0.1962E+02  0.5834E+03
      7.243  0.2304E+02  0.5858E+03
      7.345  0.2518E+02  0.5884E+03
      7.446  0.2521E+02  0.5910E+03
      7.548  0.3335E+02  0.5944E+03
      7.650  0.4101E+02  0.5986E+03
      7.752  0.3242E+02  0.6019E+03
      7.854  0.1659E+02  0.6036E+03
      7.956  0.3743E+01  0.6040E+03
      8.058  0.3451E+00  0.6040E+03
      8.159  0.1173E+01  0.6041E+03
      8.261  0.5570E+01  0.6047E+03
      8.363  0.1590E+02  0.6063E+03
      8.465  0.2857E+02  0.6092E+03
      8.567  0.3942E+02  0.6133E+03
      8.669  0.4595E+02  0.6180E+03
      8.771  0.4762E+02  0.6229E+03
      8.873  0.4103E+02  0.6271E+03
      8.974  0.3135E+02  0.6303E+03
      9.076  0.2940E+02  0.6333E+03
      9.178  0.2772E+02  0.6361E+03
      9.280  0.2587E+02  0.6388E+03
      9.382  0.2511E+02  0.6413E+03
      9.484  0.2487E+02  0.6439E+03
      9.586  0.2426E+02  0.6464E+03
      9.687  0.3396E+02  0.6499E+03
      9.789  0.4317E+02  0.6543E+03
      9.891  0.4264E+02  0.6586E+03
      9.993  0.3870E+02  0.6626E+03
     10.095  0.4025E+02  0.6667E+03
     10.197  0.4309E+02  0.6711E+03
     10.299  0.4394E+02  0.6756E+03
     10.401  0.4410E+02  0.6801E+03
     10.502  0.4204E+02  0.6845E+03
     10.604  0.3910E+02  0.6885E+03
     10.706  0.3436E+02  0.6920E+03
     10.808  0.2858E+02  0.6949E+03
     10.910  0.3002E+02  0.6980E+03
     11.012  0.3367E+02  0.7014E+03
     11.114  0.2450E+02  0.7039E+03
     11.215  0.6929E+00  0.7040E+03
     11.317  0.2166E-04  0.7040E+03
     11.419  0.2289E-12  0.7040E+03
     11.521  0.0000E+00  0.7040E+03
     11.623  0.0000E+00  0.7040E+03
     11.725  0.0000E+00  0.7040E+03
     11.827  0.0000E+00  0.7040E+03
     11.929  0.0000E+00  0.7040E+03
     12.030  0.0000E+00  0.7040E+03
     12.132  0.0000E+00  0.7040E+03
     12.234  0.0000E+00  0.7040E+03
     12.336  0.0000E+00  0.7040E+03
     12.438  0.0000E+00  0.7040E+03
     12.42365301    -18.12266510  301      1.94881143      1.00000000
    -18.123  0.0000E+00  0.0000E+00
    -18.021  0.0000E+00  0.0000E+00
    -17.919  0.0000E+00  0.0000E+00
    -17.817  0.0000E+00  0.0000E+00
    -17.715  0.0000E+00  0.0000E+00
    -17.614  0.0000E+00  0.0000E+00
    -17.512  0.0000E+00  0.0000E+00
    -17.410  0.0000E+00  0.0000E+00
    -17.308  0.0000E+00  0.0000E+00
    -17.206  0.0000E+00  0.0000E+00
    -17.104  0.0000E+00  0.0000E+00
    -17.003  0.3086E-16  0.3142E-17
    -16.901  0.2402E-08  0.2446E-09
    -16.799  0.6565E-04  0.6685E-05
    -16.697  0.1614E-02  0.1710E-03
    -16.595  0.2023E-02  0.3771E-03
    -16.494  0.5255E-02  0.9122E-03
    -16.392  0.1994E-02  0.1115E-02
    -16.290  0.6170E-02  0.1743E-02
    -16.188  0.5502E-02  0.2304E-02
    -16.086  0.7724E-02  0.3090E-02
    -15.984  0.8417E-02  0.3947E-02
    -15.883  0.6158E-02  0.4574E-02
    -15.781  0.4763E-02  0.5059E-02
    -15.679  0.6377E-02  0.5709E-02
    -15.577  0.3786E-02  0.6094E-02
    -15.475  0.1039E-02  0.6200E-02
    -15.373  0.7854E-03  0.6280E-02
    -15.272  0.1172E-02  0.6399E-02
    -15.170  0.8545E-05  0.6400E-02
    -15.068  0.3656E-10  0.6400E-02
    -14.966  0.0000E+00  0.6400E-02
    -14.864  0.0000E+00  0.6400E-02
    -14.763  0.0000E+00  0.6400E-02
    -14.661  0.0000E+00  0.6400E-02
    -14.559  0.0000E+00  0.6400E-02
    -14.457  0.0000E+00  0.6400E-02
    -14.355  0.0000E+00  0.6400E-02
    -14.253  0.0000E+00  0.6400E-02
    -14.152  0.0000E+00  0.6400E-02
    -14.050  0.0000E+00  0.6400E-02
    -13.948  0.0000E+00  0.6400E-02
    -13.846  0.0000E+00  0.6400E-02
    -13.744  0.0000E+00  0.6400E-02
    -13.643  0.0000E+00  0.6400E-02
    -13.541  0.0000E+00  0.6400E-02
    -13.439  0.0000E+00  0.6400E-02
    -13.337  0.0000E+00  0.6400E-02
    -13.235  0.0000E+00  0.6400E-02
    -13.133  0.0000E+00  0.6400E-02
    -13.032  0.0000E+00  0.6400E-02
    -12.930  0.0000E+00  0.6400E-02
    -12.828  0.0000E+00  0.6400E-02
    -12.726  0.0000E+00  0.6400E-02
    -12.624  0.0000E+00  0.6400E-02
    -12.523  0.0000E+00  0.6400E-02
    -12.421  0.0000E+00  0.6400E-02
    -12.319  0.0000E+00  0.6400E-02
    -12.217  0.0000E+00  0.6400E-02
    -12.115  0.0000E+00  0.6400E-02
    -12.013  0.0000E+00  0.6400E-02
    -11.912  0.0000E+00  0.6400E-02
    -11.810  0.0000E+00  0.6400E-02
    -11.708  0.0000E+00  0.6400E-02
    -11.606  0.0000E+00  0.6400E-02
    -11.504  0.0000E+00  0.6400E-02
    -11.402  0.0000E+00  0.6400E-02
    -11.301  0.0000E+00  0.6400E-02
    -11.199  0.0000E+00  0.6400E-02
    -11.097  0.0000E+00  0.6400E-02
    -10.995  0.0000E+00  0.6400E-02
    -10.893  0.0000E+00  0.6400E-02
    -10.792  0.0000E+00  0.6400E-02
    -10.690  0.0000E+00  0.6400E-02
    -10.588  0.0000E+00  0.6400E-02
    -10.486  0.0000E+00  0.6400E-02
    -10.384  0.0000E+00  0.6400E-02
    -10.282  0.0000E+00  0.6400E-02
    -10.181  0.0000E+00  0.6400E-02
    -10.079  0.0000E+00  0.6400E-02
     -9.977  0.0000E+00  0.6400E-02
     -9.875  0.0000E+00  0.6400E-02
     -9.773  0.0000E+00  0.6400E-02
     -9.672  0.0000E+00  0.6400E-02
     -9.570  0.0000E+00  0.6400E-02
     -9.468  0.0000E+00  0.6400E-02
     -9.366  0.0000E+00  0.6400E-02
     -9.264  0.0000E+00  0.6400E-02
     -9.162  0.0000E+00  0.6400E-02
     -9.061  0.0000E+00  0.6400E-02
     -8.959  0.0000E+00  0.6400E-02
     -8.857  0.0000E+00  0.6400E-02
     -8.755  0.0000E+00  0.6400E-02
     -8.653  0.0000E+00  0.6400E-02
     -8.551  0.0000E+00  0.6400E-02
     -8.450  0.0000E+00  0.6400E-02
     -8.348  0.0000E+00  0.6400E-02
     -8.246  0.0000E+00  0.6400E-02
     -8.144  0.0000E+00  0.6400E-02
     -8.042  0.0000E+00  0.6400E-02
     -7.941  0.0000E+00  0.6400E-02
     -7.839  0.0000E+00  0.6400E-02
     -7.737  0.0000E+00  0.6400E-02
     -7.635  0.0000E+00  0.6400E-02
     -7.533  0.0000E+00  0.6400E-02
     -7.431  0.0000E+00  0.6400E-02
     -7.330  0.0000E+00  0.6400E-02
     -7.228  0.0000E+00  0.6400E-02
     -7.126  0.0000E+00  0.6400E-02
     -7.024  0.0000E+00  0.6400E-02
     -6.922  0.0000E+00  0.6400E-02
     -6.821  0.0000E+00  0.6400E-02
     -6.719  0.0000E+00  0.6400E-02
     -6.617  0.0000E+00  0.6400E-02
     -6.515  0.0000E+00  0.6400E-02
     -6.413  0.0000E+00  0.6400E-02
     -6.311  0.0000E+00  0.6400E-02
     -6.210  0.0000E+00  0.6400E-02
     -6.108  0.0000E+00  0.6400E-02
     -6.006  0.0000E+00  0.6400E-02
     -5.904  0.0000E+00  0.6400E-02
     -5.802  0.0000E+00  0.6400E-02
     -5.700  0.0000E+00  0.6400E-02
     -5.599  0.0000E+00  0.6400E-02
     -5.497  0.0000E+00  0.6400E-02
     -5.395  0.0000E+00  0.6400E-02
     -5.293  0.0000E+00  0.6400E-02
     -5.191  0.0000E+00  0.6400E-02
     -5.090  0.0000E+00  0.6400E-02
     -4.988  0.3882E-16  0.6400E-02
     -4.886  0.3028E-08  0.6400E-02
     -4.784  0.1001E-03  0.6410E-02
     -4.682  0.4711E-02  0.6890E-02
     -4.580  0.5991E-02  0.7500E-02
     -4.479  0.2945E-02  0.7800E-02
     -4.377  0.2313E-02  0.8035E-02
     -4.275  0.5273E-02  0.8572E-02
     -4.173  0.8381E-02  0.9426E-02
     -4.071  0.7788E-02  0.1022E-01
     -3.970  0.7997E-02  0.1103E-01
     -3.868  0.1096E-01  0.1215E-01
     -3.766  0.6539E-02  0.1281E-01
     -3.664  0.8367E-02  0.1367E-01
     -3.562  0.7843E-02  0.1447E-01
     -3.460  0.8230E-02  0.1530E-01
     -3.359  0.9349E-02  0.1626E-01
     -3.257  0.8749E-02  0.1715E-01
     -3.155  0.1058E-01  0.1822E-01
     -3.053  0.9553E-02  0.1920E-01
     -2.951  0.1085E-01  0.2030E-01
     -2.850  0.1235E-01  0.2156E-01
     -2.748  0.8969E-02  0.2247E-01
     -2.646  0.8552E-02  0.2334E-01
     -2.544  0.8564E-02  0.2421E-01
     -2.442  0.6061E-02  0.2483E-01
     -2.340  0.4299E-02  0.2527E-01
     -2.239  0.3169E-02  0.2559E-01
     -2.137  0.8209E-04  0.2560E-01
     -2.035  0.2697E-08  0.2560E-01
     -1.933  0.3511E-16  0.2560E-01
     -1.831  0.0000E+00  0.2560E-01
     -1.729  0.0000E+00  0.2560E-01
     -1.628  0.0000E+00  0.2560E-01
     -1.526  0.0000E+00  0.2560E-01
     -1.424  0.0000E+00  0.2560E-01
     -1.322  0.0000E+00  0.2560E-01
     -1.220  0.0000E+00  0.2560E-01
     -1.119  0.0000E+00  0.2560E-01
     -1.017  0.0000E+00  0.2560E-01
     -0.915  0.1090E-18  0.2560E-01
     -0.813  0.8943E-10  0.2560E-01
     -0.711  0.1766E-04  0.2560E-01
     -0.609  0.3363E-02  0.2594E-01
     -0.508  0.1643E-01  0.2762E-01
     -0.406  0.2802E-01  0.3047E-01
     -0.304  0.3242E-01  0.3377E-01
     -0.202  0.3305E-01  0.3714E-01
     -0.100  0.2651E-01  0.3983E-01
      0.001  0.1933E-01  0.4180E-01
      0.103  0.1536E-01  0.4337E-01
      0.205  0.1541E-01  0.4494E-01
      0.307  0.1313E-01  0.4627E-01
      0.409  0.1351E-01  0.4765E-01
      0.511  0.9446E-02  0.4861E-01
      0.612  0.7675E-02  0.4939E-01
      0.714  0.8040E-02  0.5021E-01
      0.816  0.1008E-01  0.5124E-01
      0.918  0.1321E-01  0.5258E-01
      1.020  0.1329E-01  0.5394E-01
      1.122  0.1412E-01  0.5537E-01
      1.223  0.1143E-01  0.5654E-01
      1.325  0.4211E-02  0.5697E-01
      1.427  0.3255E-03  0.5700E-01
      1.529  0.3462E-03  0.5704E-01
      1.631  0.3121E-02  0.5735E-01
      1.732  0.2405E-02  0.5760E-01
      1.834  0.2080E-04  0.5760E-01
      1.936  0.1379E-09  0.5760E-01
      2.038  0.4361E-18  0.5760E-01
      2.140  0.0000E+00  0.5760E-01
      2.242  0.0000E+00  0.5760E-01
      2.343  0.0000E+00  0.5760E-01
      2.445  0.0000E+00  0.5760E-01
      2.547  0.0000E+00  0.5760E-01
      2.649  0.0000E+00  0.5760E-01
      2.751  0.0000E+00  0.5760E-01
      2.852  0.0000E+00  0.5760E-01
      2.954  0.0000E+00  0.5760E-01
      3.056  0.0000E+00  0.5760E-01
      3.158  0.0000E+00  0.5760E-01
      3.260  0.0000E+00  0.5760E-01
      3.362  0.0000E+00  0.5760E-01
      3.463  0.0000E+00  0.5760E-01
      3.565  0.0000E+00  0.5760E-01
      3.667  0.0000E+00  0.5760E-01
      3.769  0.0000E+00  0.5760E-01
      3.871  0.0000E+00  0.5760E-01
      3.973  0.0000E+00  0.5760E-01
      4.074  0.0000E+00  0.5760E-01
      4.176  0.0000E+00  0.5760E-01
      4.278  0.0000E+00  0.5760E-01
      4.380  0.0000E+00  0.5760E-01
      4.482  0.0000E+00  0.5760E-01
      4.583  0.0000E+00  0.5760E-01
      4.685  0.0000E+00  0.5760E-01
      4.787  0.0000E+00  0.5760E-01
      4.889  0.1699E-12  0.5760E-01
      4.991  0.4508E-06  0.5760E-01
      5.093  0.5229E-03  0.5765E-01
      5.194  0.1417E-02  0.5780E-01
      5.296  0.2362E-04  0.5780E-01
      5.398  0.2754E-09  0.5780E-01
      5.500  0.1090E-17  0.5780E-01
      5.602  0.0000E+00  0.5780E-01
      5.703  0.0000E+00  0.5780E-01
      5.805  0.0000E+00  0.5780E-01
      5.907  0.0000E+00  0.5780E-01
      6.009  0.0000E+00  0.5780E-01
      6.111  0.0000E+00  0.5780E-01
      6.213  0.0000E+00  0.5780E-01
      6.314  0.0000E+00  0.5780E-01
      6.416  0.0000E+00  0.5780E-01
      6.518  0.0000E+00  0.5780E-01
      6.620  0.2394E-15  0.5780E-01
      6.722  0.8741E-08  0.5780E-01
      6.823  0.1161E-03  0.5781E-01
      6.925  0.1664E-02  0.5798E-01
      7.027  0.4458E-03  0.5803E-01
      7.129  0.2339E-02  0.5826E-01
      7.231  0.2306E-02  0.5850E-01
      7.333  0.1926E-02  0.5870E-01
      7.434  0.2915E-02  0.5899E-01
      7.536  0.9508E-03  0.5909E-01
      7.638  0.5169E-02  0.5962E-01
      7.740  0.5317E-02  0.6016E-01
      7.842  0.2036E-02  0.6036E-01
      7.944  0.3509E-03  0.6040E-01
      8.045  0.1419E-06  0.6040E-01
      8.147  0.3549E-10  0.6040E-01
      8.249  0.8578E-05  0.6040E-01
      8.351  0.1543E-02  0.6056E-01
      8.453  0.2648E-02  0.6083E-01
      8.554  0.4753E-02  0.6131E-01
      8.656  0.3813E-02  0.6170E-01
      8.758  0.5732E-02  0.6228E-01
      8.860  0.4989E-02  0.6279E-01
      8.962  0.3029E-02  0.6310E-01
      9.064  0.1475E-02  0.6325E-01
      9.165  0.1973E-02  0.6345E-01
      9.267  0.2841E-02  0.6374E-01
      9.369  0.3961E-02  0.6414E-01
      9.471  0.2527E-02  0.6440E-01
      9.573  0.1760E-02  0.6458E-01
      9.674  0.1764E-02  0.6476E-01
      9.776  0.2831E-02  0.6505E-01
      9.878  0.4741E-02  0.6553E-01
      9.980  0.6713E-02  0.6621E-01
     10.082  0.4614E-02  0.6668E-01
     10.184  0.2395E-02  0.6693E-01
     10.285  0.2565E-02  0.6719E-01
     10.387  0.4087E-02  0.6761E-01
     10.489  0.4199E-02  0.6803E-01
     10.591  0.4800E-02  0.6852E-01
     10.693  0.3636E-02  0.6889E-01
     10.795  0.3335E-02  0.6923E-01
     10.896  0.4172E-02  0.6966E-01
     10.998  0.3981E-02  0.7006E-01
     11.100  0.3238E-02  0.7039E-01
     11.202  0.9004E-04  0.7040E-01
     11.304  0.2695E-08  0.7040E-01
     11.405  0.3227E-16  0.7040E-01
     11.507  0.0000E+00  0.7040E-01
     11.609  0.0000E+00  0.7040E-01
     11.711  0.0000E+00  0.7040E-01
     11.813  0.0000E+00  0.7040E-01
     11.915  0.0000E+00  0.7040E-01
     12.016  0.0000E+00  0.7040E-01
     12.118  0.0000E+00  0.7040E-01
     12.220  0.0000E+00  0.7040E-01
     12.322  0.0000E+00  0.7040E-01
     12.424  0.0000E+00  0.7040E-01
